 argument  1 = input.nw



============================== echo of input deck ==============================
echo
memory 1000 mb
geometry noautosym noautoz
O 2.19756413 2.30645657 2.12398648
H 1.30374396 2.67852998 2.14887738
H 2.77602649 2.98882961 2.48710012
O -0.44664225 3.18157983 -0.553412318
H -0.294790566 4.09050608 -0.841292858
H 0.405002892 2.72651124 -0.635274589
end
basis spherical noprint
 * library cc-pvdz
end
task scf gradient
geometry noautosym noautoz
O 2.19756413 2.30645657 2.12398648
H 1.30374396 2.67852998 2.14887738
H 2.77602649 2.98882961 2.48710012
O -0.44664225 3.18157983 -0.553412318
H -0.294790566 4.09050608 -0.841292858
H 0.405002892 2.72651124 -0.635274589
end
basis spherical noprint
 * library cc-pvdz
end
task mp2 gradient
task ccsd gradient
================================================================================


                                         
                                         


             Northwest Computational Chemistry Package (NWChem) 7.0.2
             --------------------------------------------------------


                    Environmental Molecular Sciences Laboratory
                       Pacific Northwest National Laboratory
                                Richland, WA 99352

                              Copyright (c) 1994-2020
                       Pacific Northwest National Laboratory
                            Battelle Memorial Institute

             NWChem is an open-source computational chemistry package
                        distributed under the terms of the
                      Educational Community License (ECL) 2.0
             A copy of the license is included with this distribution
                              in the LICENSE.TXT file

                                  ACKNOWLEDGMENT
                                  --------------

            This software and its documentation were developed at the
            EMSL at Pacific Northwest National Laboratory, a multiprogram
            national laboratory, operated for the U.S. Department of Energy
            by Battelle under Contract Number DE-AC05-76RL01830. Support
            for this work was provided by the Department of Energy Office
            of Biological and Environmental Research, Office of Basic
            Energy Sciences, and the Office of Advanced Scientific Computing.


           Job information
           ---------------

    hostname        = pop-os
    program         = nwchem
    date            = Thu Jul  1 12:18:16 2021

    compiled        = Wed_Jan_06_19:48:08_2021
    source          = /build/nwchem-ksKH2r/nwchem-7.0.2
    nwchem branch   = 7.0.2
    nwchem revision = N/A
    ga revision     = 5.7.1
    use scalapack   = T
    input           = input.nw
    prefix          = input.
    data base       = ./input.db
    status          = restart
    nproc           =        1
    time left       =     -1s



           Memory information
           ------------------

    heap     =   32767996 doubles =    250.0 Mbytes
    stack    =   32768001 doubles =    250.0 Mbytes
    global   =   65536000 doubles =    500.0 Mbytes (distinct from heap & stack)
    total    =  131071997 doubles =   1000.0 Mbytes
    verify   = yes
    hardfail = no 


           Directory information
           ---------------------

  0 permanent = .
  0 scratch   = .


           Previous task information
           -------------------------

    Theory    = ccsd(t)                         
    Operation = gradient                      
    Status    = ok                            
    Qmmm      = F
    Ignore    = F


           Geometries in the database
           --------------------------

       Name                              Natoms  Last Modified
       --------------------------------  ------  ------------------------
    1  geometry                               6  Thu Jul  1 12:00:16 2021  

  The geometry named "geometry" is the default for restart



           Basis sets in the database
           --------------------------

       Name                              Natoms  Last Modified
        --------------------------------  ------  ------------------------
    1  ao basis                               0  Thu Jul  1 12:00:16 2021  

  The basis set named "ao basis" is the default AO basis for restart




                                NWChem Input Module
                                -------------------



 Scaling coordinates for geometry "geometry" by  1.889725989
 (inverse scale =  0.529177249)



                             Geometry "geometry" -> ""
                             -------------------------

 Output coordinates in angstroms (scale by  1.889725989 to convert to a.u.)

  No.       Tag          Charge          X              Y              Z
 ---- ---------------- ---------- -------------- -------------- --------------
    1 O                    8.0000     1.28769624    -0.51297684     1.33778631
    2 H                    1.0000     0.39387607    -0.14090343     1.36267721
    3 H                    1.0000     1.86615860     0.16939620     1.70089995
    4 O                    8.0000    -1.35651014     0.36214642    -1.33961249
    5 H                    1.0000    -1.20465846     1.27107267    -1.62749303
    6 H                    1.0000    -0.50486500    -0.09292217    -1.42147476

      Atomic Mass 
      ----------- 

      O                 15.994910
      H                  1.007825


 Effective nuclear repulsion energy (a.u.)      32.0566581514

            Nuclear Dipole moment (a.u.) 
            ----------------------------
        X                 Y               Z
 ---------------- ---------------- ----------------
     0.0000000000     0.0000000000    -0.0000000000


            XYZ format geometry
            -------------------
     6
 geometry
 O                     1.28769624    -0.51297684     1.33778631
 H                     0.39387607    -0.14090343     1.36267721
 H                     1.86615860     0.16939620     1.70089995
 O                    -1.35651014     0.36214642    -1.33961249
 H                    -1.20465846     1.27107267    -1.62749303
 H                    -0.50486500    -0.09292217    -1.42147476

 ==============================================================================
                                internuclear distances
 ------------------------------------------------------------------------------
       center one      |      center two      | atomic units |  angstroms
 ------------------------------------------------------------------------------
    2 H                |   1 O                |     1.83018  |     0.96849
    3 H                |   1 O                |     1.82445  |     0.96545
    5 H                |   4 O                |     1.82442  |     0.96544
    6 H                |   4 O                |     1.83127  |     0.96907
 ------------------------------------------------------------------------------
                         number of included internuclear distances:          4
 ==============================================================================



 ==============================================================================
                                 internuclear angles
 ------------------------------------------------------------------------------
        center 1       |       center 2       |       center 3       |  degrees
 ------------------------------------------------------------------------------
    2 H                |   1 O                |   3 H                |   105.77
    5 H                |   4 O                |   6 H                |   106.18
 ------------------------------------------------------------------------------
                            number of included internuclear angles:          2
 ==============================================================================



                                 NWChem SCF Module
                                 -----------------



  ao basis        = "ao basis"
  functions       =    48
  atoms           =     6
  closed shells   =    10
  open shells     =     0
  charge          =   0.00
  wavefunction    = RHF 
  input vectors   = ./input.movecs
  output vectors  = ./input.movecs
  use symmetry    = F
  symmetry adapt  = F


 Summary of "ao basis" -> "ao basis" (spherical)
 ------------------------------------------------------------------------------
       Tag                 Description            Shells   Functions and Types
 ---------------- ------------------------------  ------  ---------------------
 O                          cc-pvdz                  6       14   3s2p1d
 H                          cc-pvdz                  3        5   2s1p



 Forming initial guess at       0.0s


 Loading old vectors from job with title :




 Starting SCF solution at       0.0s



 ----------------------------------------------
         Quadratically convergent ROHF

 Convergence threshold     :          1.000E-06
 Maximum no. of iterations :           30
 Final Fock-matrix accuracy:          1.000E-08
 ----------------------------------------------


 Integral file          = ./input.aoints.0
 Record size in doubles =  65536        No. of integs per rec  =  43688
 Max. records in memory =     23        Max. records in file   = 401706
 No. of bits per label  =      8        No. of bits per value  =     64


 #quartets = 3.304D+04 #integrals = 4.275D+05 #direct =  0.0% #cached =100.0%


              iter       energy          gnorm     gmax       time
             ----- ------------------- --------- --------- --------
                 1     -152.0552571479  4.99D-08  1.05D-08      0.1


       Final RHF  results 
       ------------------ 

         Total SCF energy =   -152.055257147910
      One-electron energy =   -273.633866740399
      Two-electron energy =     89.521951441126
 Nuclear repulsion energy =     32.056658151363

        Time for solution =      0.1s


             Final eigenvalues
             -----------------

              1      
    1  -20.5548
    2  -20.5544
    3   -1.3339
    4   -1.3332
    5   -0.7012
    6   -0.6977
    7   -0.5653
    8   -0.5647
    9   -0.4963
   10   -0.4935
   11    0.1621
   12    0.2049
   13    0.2565
   14    0.2748
   15    0.7777
   16    0.7966
   17    0.8298
   18    0.8571
   19    1.1573
   20    1.1631

                       ROHF Final Molecular Orbital Analysis
                       -------------------------------------

 Vector    2  Occ=2.000000D+00  E=-2.055436D+01
              MO Center=  1.3D+00, -5.1D-01,  1.3D+00, r^2= 1.5D-02
   Bfn.  Coefficient  Atom+Function         Bfn.  Coefficient  Atom+Function  
  ----- ------------  ---------------      ----- ------------  ---------------
     1      1.000882  1 O  s          

 Vector    3  Occ=2.000000D+00  E=-1.333897D+00
              MO Center=  2.8D-02,  2.9D-02,  1.6D-02, r^2= 4.1D+00
   Bfn.  Coefficient  Atom+Function         Bfn.  Coefficient  Atom+Function  
  ----- ------------  ---------------      ----- ------------  ---------------
     2      0.315857  1 O  s                 26      0.312383  4 O  s          
     3      0.271183  1 O  s                 27      0.269287  4 O  s          

 Vector    4  Occ=2.000000D+00  E=-1.333208D+00
              MO Center=  1.6D-03,  3.8D-02, -1.5D-02, r^2= 4.1D+00
   Bfn.  Coefficient  Atom+Function         Bfn.  Coefficient  Atom+Function  
  ----- ------------  ---------------      ----- ------------  ---------------
    26     -0.315626  4 O  s                  2      0.312015  1 O  s          
    27     -0.275518  4 O  s                  3      0.272701  1 O  s          

 Vector    5  Occ=2.000000D+00  E=-7.011603D-01
              MO Center= -3.2D-01,  1.8D-01, -4.1D-01, r^2= 4.0D+00
   Bfn.  Coefficient  Atom+Function         Bfn.  Coefficient  Atom+Function  
  ----- ------------  ---------------      ----- ------------  ---------------
    29      0.345114  4 O  py                 4      0.275730  1 O  px         
    39      0.262931  5 H  s                 44     -0.260289  6 H  s          
    20      0.194289  3 H  s                 15     -0.192156  2 H  s          
    28     -0.176928  4 O  px                32      0.156556  4 O  py         

 Vector    6  Occ=2.000000D+00  E=-6.977242D-01
              MO Center=  3.8D-01, -4.1D-02,  4.1D-01, r^2= 4.0D+00
   Bfn.  Coefficient  Atom+Function         Bfn.  Coefficient  Atom+Function  
  ----- ------------  ---------------      ----- ------------  ---------------
     4      0.375625  1 O  px                20      0.263710  3 H  s          
    15     -0.261407  2 H  s                 29     -0.259417  4 O  py         
    39     -0.195865  5 H  s                 44      0.193832  6 H  s          
     7      0.173291  1 O  px         

 Vector    7  Occ=2.000000D+00  E=-5.652694D-01
              MO Center=  1.2D+00, -5.3D-01,  1.3D+00, r^2= 1.1D+00
   Bfn.  Coefficient  Atom+Function         Bfn.  Coefficient  Atom+Function  
  ----- ------------  ---------------      ----- ------------  ---------------
     5      0.485595  1 O  py                 3     -0.338541  1 O  s          
     8      0.328555  1 O  py                15      0.201895  2 H  s          
    20      0.200684  3 H  s                  6      0.182438  1 O  pz         

 Vector    8  Occ=2.000000D+00  E=-5.647050D-01
              MO Center= -1.3D+00,  3.2D-01, -1.3D+00, r^2= 1.1D+00
   Bfn.  Coefficient  Atom+Function         Bfn.  Coefficient  Atom+Function  
  ----- ------------  ---------------      ----- ------------  ---------------
    28      0.466753  4 O  px                27     -0.335444  4 O  s          
    31      0.317183  4 O  px                29      0.209859  4 O  py         
    39      0.200044  5 H  s                 44      0.200852  6 H  s          
    30     -0.172567  4 O  pz         

 Vector    9  Occ=2.000000D+00  E=-4.963204D-01
              MO Center= -9.2D-02, -3.7D-02, -6.8D-02, r^2= 4.3D+00
   Bfn.  Coefficient  Atom+Function         Bfn.  Coefficient  Atom+Function  
  ----- ------------  ---------------      ----- ------------  ---------------
    30     -0.428492  4 O  pz                 6      0.397674  1 O  pz         
    33     -0.338981  4 O  pz                 9      0.314628  1 O  pz         
     5     -0.158541  1 O  py         

 Vector   10  Occ=2.000000D+00  E=-4.935018D-01
              MO Center=  3.8D-02, -8.5D-02,  6.8D-02, r^2= 4.3D+00
   Bfn.  Coefficient  Atom+Function         Bfn.  Coefficient  Atom+Function  
  ----- ------------  ---------------      ----- ------------  ---------------
     6      0.418025  1 O  pz                30      0.405801  4 O  pz         
     9      0.328348  1 O  pz                33      0.318000  4 O  pz         
     5     -0.179963  1 O  py         

 Vector   11  Occ=0.000000D+00  E= 1.620767D-01
              MO Center=  9.2D-02,  3.2D-01, -3.3D-02, r^2= 5.7D+00
   Bfn.  Coefficient  Atom+Function         Bfn.  Coefficient  Atom+Function  
  ----- ------------  ---------------      ----- ------------  ---------------
    27      0.670802  4 O  s                  3      0.659197  1 O  s          
    16     -0.602459  2 H  s                 45     -0.576589  6 H  s          
    40     -0.534046  5 H  s                 21     -0.483915  3 H  s          
    31      0.203324  4 O  px                 8      0.198669  1 O  py         

 Vector   12  Occ=0.000000D+00  E= 2.049212D-01
              MO Center=  4.9D-01,  7.4D-01,  1.6D-01, r^2= 7.9D+00
   Bfn.  Coefficient  Atom+Function         Bfn.  Coefficient  Atom+Function  
  ----- ------------  ---------------      ----- ------------  ---------------
    21      0.956385  3 H  s                 40     -0.861534  5 H  s          
     3     -0.685060  1 O  s                 27      0.652226  4 O  s          
     8     -0.246181  1 O  py                45     -0.222453  6 H  s          
    32      0.220027  4 O  py                16      0.186776  2 H  s          

 Vector   13  Occ=0.000000D+00  E= 2.565264D-01
              MO Center= -1.1D-02,  5.5D-01, -3.9D-01, r^2= 7.0D+00
   Bfn.  Coefficient  Atom+Function         Bfn.  Coefficient  Atom+Function  
  ----- ------------  ---------------      ----- ------------  ---------------
    40      1.157916  5 H  s                 45     -1.009428  6 H  s          
    21      0.904169  3 H  s                 16     -0.720382  2 H  s          
    32     -0.463361  4 O  py                 7     -0.352705  1 O  px         
    31      0.208933  4 O  px                29     -0.204402  4 O  py         
     4     -0.164549  1 O  px         

 Vector   14  Occ=0.000000D+00  E= 2.748111D-01
              MO Center=  1.5D-01, -3.9D-02,  2.8D-01, r^2= 5.6D+00
   Bfn.  Coefficient  Atom+Function         Bfn.  Coefficient  Atom+Function  
  ----- ------------  ---------------      ----- ------------  ---------------
    16      1.359622  2 H  s                 45     -1.164061  6 H  s          
    21     -0.861523  3 H  s                 40      0.574983  5 H  s          
     7      0.533842  1 O  px                27      0.349579  4 O  s          
    32     -0.318370  4 O  py                 3     -0.285946  1 O  s          
    31      0.286146  4 O  px                 4      0.219778  1 O  px         

 Vector   15  Occ=0.000000D+00  E= 7.777376D-01
              MO Center=  1.5D-01,  4.7D-02,  7.1D-02, r^2= 4.8D+00
   Bfn.  Coefficient  Atom+Function         Bfn.  Coefficient  Atom+Function  
  ----- ------------  ---------------      ----- ------------  ---------------
    44      0.733791  6 H  s                 15      0.696765  2 H  s          
    20     -0.665978  3 H  s                 39     -0.545229  5 H  s          
    21      0.463703  3 H  s                 45     -0.446485  6 H  s          
    16     -0.439050  2 H  s                 40      0.390859  5 H  s          
     7      0.332595  1 O  px                32      0.272200  4 O  py         

 Vector   16  Occ=0.000000D+00  E= 7.965556D-01
              MO Center= -1.5D-01,  4.4D-01, -2.5D-01, r^2= 5.6D+00
   Bfn.  Coefficient  Atom+Function         Bfn.  Coefficient  Atom+Function  
  ----- ------------  ---------------      ----- ------------  ---------------
    39      0.873477  5 H  s                 40     -0.648472  5 H  s          
    20     -0.644019  3 H  s                 15      0.565058  2 H  s          
    21      0.504710  3 H  s                 16     -0.491548  2 H  s          
    44     -0.493768  6 H  s                 45      0.475250  6 H  s          
    32     -0.279038  4 O  py                 7      0.246070  1 O  px         

 Vector   17  Occ=0.000000D+00  E= 8.298438D-01
              MO Center=  4.8D-01,  2.7D-01,  3.2D-01, r^2= 5.0D+00
   Bfn.  Coefficient  Atom+Function         Bfn.  Coefficient  Atom+Function  
  ----- ------------  ---------------      ----- ------------  ---------------
    20      0.745216  3 H  s                 21     -0.542333  3 H  s          
    44      0.531283  6 H  s                 39      0.499393  5 H  s          
    15      0.457326  2 H  s                 40     -0.335863  5 H  s          
    45     -0.320112  6 H  s                  5     -0.221775  1 O  py         
    16     -0.220968  2 H  s                  3      0.199112  1 O  s          

 Vector   18  Occ=0.000000D+00  E= 8.571208D-01
              MO Center= -5.6D-02,  1.8D-01, -1.3D-01, r^2= 4.7D+00
   Bfn.  Coefficient  Atom+Function         Bfn.  Coefficient  Atom+Function  
  ----- ------------  ---------------      ----- ------------  ---------------
    15      0.726570  2 H  s                 44     -0.688263  6 H  s          
    16     -0.653785  2 H  s                 45      0.612229  6 H  s          
    39     -0.478246  5 H  s                 20      0.346057  3 H  s          
    40      0.310163  5 H  s                 27     -0.275640  4 O  s          
     3      0.231381  1 O  s                 28      0.219420  4 O  px         

 Vector   19  Occ=0.000000D+00  E= 1.157270D+00
              MO Center= -9.4D-02, -2.8D-02, -6.9D-02, r^2= 5.0D+00
   Bfn.  Coefficient  Atom+Function         Bfn.  Coefficient  Atom+Function  
  ----- ------------  ---------------      ----- ------------  ---------------
    31      0.795102  4 O  px                 8      0.755771  1 O  py         
    27      0.519093  4 O  s                  3      0.499579  1 O  s          
    28     -0.462212  4 O  px                 5     -0.453811  1 O  py         
    44     -0.427154  6 H  s                 15     -0.379148  2 H  s          
    33     -0.367020  4 O  pz                20     -0.341837  3 H  s          

 Vector   20  Occ=0.000000D+00  E= 1.163130D+00
              MO Center= -7.9D-02, -9.5D-02, -4.1D-02, r^2= 5.0D+00
   Bfn.  Coefficient  Atom+Function         Bfn.  Coefficient  Atom+Function  
  ----- ------------  ---------------      ----- ------------  ---------------
     8      0.801931  1 O  py                31     -0.753407  4 O  px         
     3      0.515143  1 O  s                 27     -0.517243  4 O  s          
     5     -0.492509  1 O  py                28      0.484849  4 O  px         
    32     -0.478322  4 O  py                39      0.386164  5 H  s          
    15     -0.369079  2 H  s                 20     -0.355542  3 H  s          


 center of mass
 --------------
 x =  -0.02863634 y =  -0.06276683 z =  -0.00075995

 moments of inertia (a.u.)
 ------------------
         267.027577554812          70.259028850162        -225.186400350581
          70.259028850162         457.647915962981          73.533941455321
        -225.186400350581          73.533941455321         247.420807993834

  Mulliken analysis of the total density
  --------------------------------------

    Atom       Charge   Shell Charges
 -----------   ------   -------------------------------------------------------
    1 O    8     8.33   2.00  0.83  0.83  2.82  1.83  0.01
    2 H    1     0.84   0.68  0.07  0.08
    3 H    1     0.84   0.68  0.07  0.09
    4 O    8     8.33   2.00  0.83  0.83  2.82  1.83  0.01
    5 H    1     0.84   0.68  0.07  0.09
    6 H    1     0.83   0.68  0.07  0.08

       Multipole analysis of the density wrt the origin
       ------------------------------------------------

     L   x y z        total         open         nuclear
     -   - - -        -----         ----         -------
     0   0 0 0     -0.000000      0.000000     20.000000

     1   1 0 0      0.472983      0.000000      0.000000
     1   0 1 0      1.039353      0.000000      0.000000
     1   0 0 1      0.006994      0.000000     -0.000000

     2   2 0 0    -11.674441      0.000000    119.023673
     2   1 1 0      1.309644      0.000000    -37.275422
     2   1 0 1     -0.812557      0.000000    123.944442
     2   0 2 0     -8.485061      0.000000     17.238139
     2   0 1 1      0.660781      0.000000    -40.037235
     2   0 0 2     -7.367832      0.000000    136.033069


 Parallel integral file used      10 records with       0 large values

                              NWChem Gradients Module
                              -----------------------



  wavefunction    =   RHF     



                         RHF ENERGY GRADIENTS

    atom               coordinates                        gradient
                 x          y          z           x          y          z
   1 O       2.433393  -0.969386   2.528050    0.008378  -0.020595  -0.005390
   2 H       0.744318  -0.266269   2.575087   -0.022272   0.006804  -0.000440
   3 H       3.526528   0.320112   3.214235    0.015383   0.013397   0.007462
   4 O      -2.563432   0.684358  -2.531501   -0.020809  -0.006637   0.004558
   5 H      -2.276474   2.401979  -3.075516   -0.000300   0.021303  -0.005353
   6 H      -0.954057  -0.175597  -2.686198    0.019619  -0.014272  -0.000837

                 ----------------------------------------
                 |  Time  |  1-e(secs)   |  2-e(secs)   |
                 ----------------------------------------
                 |  CPU   |       0.00   |       0.16   |
                 ----------------------------------------
                 |  WALL  |       0.00   |       0.16   |
                 ----------------------------------------

 Task  times  cpu:        0.3s     wall:        0.3s


                                NWChem Input Module
                                -------------------



 Scaling coordinates for geometry "geometry" by  1.889725989
 (inverse scale =  0.529177249)



                         Geometry "geometry" -> "        "
                         ---------------------------------

 Output coordinates in angstroms (scale by  1.889725989 to convert to a.u.)

  No.       Tag          Charge          X              Y              Z
 ---- ---------------- ---------- -------------- -------------- --------------
    1 O                    8.0000     1.28769624    -0.51297684     1.33778631
    2 H                    1.0000     0.39387607    -0.14090343     1.36267721
    3 H                    1.0000     1.86615860     0.16939620     1.70089995
    4 O                    8.0000    -1.35651014     0.36214642    -1.33961249
    5 H                    1.0000    -1.20465846     1.27107267    -1.62749303
    6 H                    1.0000    -0.50486500    -0.09292217    -1.42147476

      Atomic Mass 
      ----------- 

      O                 15.994910
      H                  1.007825


 Effective nuclear repulsion energy (a.u.)      32.0566581514

            Nuclear Dipole moment (a.u.) 
            ----------------------------
        X                 Y               Z
 ---------------- ---------------- ----------------
     0.0000000000     0.0000000000    -0.0000000000


            XYZ format geometry
            -------------------
     6
 geometry
 O                     1.28769624    -0.51297684     1.33778631
 H                     0.39387607    -0.14090343     1.36267721
 H                     1.86615860     0.16939620     1.70089995
 O                    -1.35651014     0.36214642    -1.33961249
 H                    -1.20465846     1.27107267    -1.62749303
 H                    -0.50486500    -0.09292217    -1.42147476

 ==============================================================================
                                internuclear distances
 ------------------------------------------------------------------------------
       center one      |      center two      | atomic units |  angstroms
 ------------------------------------------------------------------------------
    2 H                |   1 O                |     1.83018  |     0.96849
    3 H                |   1 O                |     1.82445  |     0.96545
    5 H                |   4 O                |     1.82442  |     0.96544
    6 H                |   4 O                |     1.83127  |     0.96907
 ------------------------------------------------------------------------------
                         number of included internuclear distances:          4
 ==============================================================================



 ==============================================================================
                                 internuclear angles
 ------------------------------------------------------------------------------
        center 1       |       center 2       |       center 3       |  degrees
 ------------------------------------------------------------------------------
    2 H                |   1 O                |   3 H                |   105.77
    5 H                |   4 O                |   6 H                |   106.18
 ------------------------------------------------------------------------------
                            number of included internuclear angles:          2
 ==============================================================================



                                 NWChem SCF Module
                                 -----------------



  ao basis        = "ao basis"
  functions       =    48
  atoms           =     6
  closed shells   =    10
  open shells     =     0
  charge          =   0.00
  wavefunction    = RHF 
  input vectors   = ./input.movecs
  output vectors  = ./input.movecs
  use symmetry    = F
  symmetry adapt  = F


 Summary of "ao basis" -> "ao basis" (spherical)
 ------------------------------------------------------------------------------
       Tag                 Description            Shells   Functions and Types
 ---------------- ------------------------------  ------  ---------------------
 O                          cc-pvdz                  6       14   3s2p1d
 H                          cc-pvdz                  3        5   2s1p



  The SCF is already converged 

         Total SCF energy =   -152.055257147910

                   NWChem MP2 Semi-direct Energy/Gradient Module
                   ---------------------------------------------


  Basis functions       =     48
  Molecular orbitals    =     48
  Frozen core           =      0
  Frozen virtuals       =      0
  Active alpha occupied =     10
  Active beta occupied  =     10
  Active alpha virtual  =     38
  Active beta virtual   =     38
  Use MO symmetry       = F
  Use skeleton AO sym   = F

  AO/Fock/Back tols     =   1.0D-09  1.0D-09  1.0D-09

 GA uses MA = F    GA memory limited = T

 Available: 
  local mem=  6.55D+07
 global mem=  6.55D+07
 local disk=  2.77D+10
  mp2_memr nvloc                    38
  nvloc new                    38
   1 passes of  10:        2607453                      55689                   2103755.

 Semi-direct pass number   1 of   1  for RHF alpha+beta  at        0.3s
  vrange nnbf                  1004
Node 0 wrote      3.1 Mb in      0.0 s     Agg I/O rate:  1087.3 Mb/s
 Done moints_semi at        0.6s
  mp2_eaf for ta                     -1
  mp2_eaf for tb                     -1
 Done maket at        0.6s
 Done pijab at        0.6s
 Done wijab at        0.6s
 Done lai at        0.7s
 Done nonsep at        1.2s
 Done multipass loop at        1.2s


          -------------------------------------------
          SCF energy                -152.055257147910
          Correlation energy          -0.409625546241
          Singlet pairs               -0.254408315036
          Triplet pairs               -0.155217231206
          Total MP2 energy          -152.464882694151
          -------------------------------------------



          ---------------------------------------------------
                    Spin Component Scaled (SCS) MP2
          Same spin pairs                     -0.103478154137
          Same spin scaling factor             0.333333333333
          Opposite spin pairs                 -0.306147392104
          Opposite spin scaling fact.          1.200000000000
          SCS-MP2 correlation energy          -0.401869588571
          Total SCS-MP2 energy              -152.457126736480
          ---------------------------------------------------

                                NWChem CPHF Module
                                ------------------


    scftype = RHF 
    nclosed =   10
      nopen =    0
  variables =      380
  tolerance =   1.0D-04
  max. iter =  100


 Integral file          = ./input.aoints.0
 Record size in doubles =  65536        No. of integs per rec  =  43688
 Max. records in memory =     23        Max. records in file   = 401706
 No. of bits per label  =      8        No. of bits per value  =     64


 #quartets = 3.304D+04 #integrals = 4.275D+05 #direct =  0.0% #cached =100.0%

 SCF residual:    4.9929949654010773E-008

            ----- linear solve (tol: 1.0E-04 prod-acc: 4.6E-12) -----

               iter nbas    rnorm     rnorm-scal   ratio     time
               ---- ---- ----------- ----------- --------- -------
                  1    1  6.9586E-03  7.7809E-02    0.0000     1.4
                  2    2  2.2591E-03  2.5260E-02    0.3246     1.4
                  3    3  6.0636E-04  6.7802E-03    0.2684     1.4
                  4    4  1.0610E-04  1.1863E-03    0.1750     1.4
                  5    5  2.7086E-05  3.0286E-04    0.2553     1.4
                  6    6  4.8233E-06  5.3933E-05    0.1781     1.4

 CPHF converged to   5.4D-05 in    6 iters


 Parallel integral file used      10 records with       0 large values

                Dipole Moments (a.u.)
                --------------
         Nuclear       SCF       SCF+MP2
       ----------- ----------- -----------
 X       0.000000    0.472983    0.450327
 Y       0.000000    1.039353    0.993128
 Z      -0.000000    0.006994    0.004013


 MP2 RHF      natural orbital occupation numbers


              1      
    1    1.9999
    2    1.9999
    3    1.9869
    4    1.9869
    5    1.9740
    6    1.9738
    7    1.9703
    8    1.9702
    9    1.9684
   10    1.9680
   11    0.0237
   12    0.0232
   13    0.0214
   14    0.0213
   15    0.0177
   16    0.0173
   17    0.0105
   18    0.0104
   19    0.0055
   20    0.0054
   21    0.0052
   22    0.0052
   23    0.0047
   24    0.0047
   25    0.0041
   26    0.0041
   27    0.0040
   28    0.0040
   29    0.0009
   30    0.0009
   31    0.0009
   32    0.0009
   33    0.0006
   34    0.0006
   35    0.0005
   36    0.0005
   37    0.0005
   38    0.0005
   39    0.0004
   40    0.0004
   41    0.0004
   42    0.0004
   43    0.0003
   44    0.0003
   45    0.0000
   46    0.0000
   47    0.0000
   48    0.0000

  MP2 natural orbitals output to ./input.mp2nos



                         mp2 ENERGY GRADIENTS

    atom               coordinates                        gradient
                 x          y          z           x          y          z
   1 O       2.433393  -0.969386   2.528050    0.001465   0.003743   0.003620
   2 H       0.744318  -0.266269   2.575087   -0.006359  -0.002849  -0.001673
   3 H       3.526528   0.320112   3.214235    0.006782  -0.001398   0.000313
   4 O      -2.563432   0.684358  -2.531501    0.002032   0.004091  -0.004167
   5 H      -2.276474   2.401979  -3.075516   -0.006062   0.004609   0.000492
   6 H      -0.954057  -0.175597  -2.686198    0.002141  -0.008196   0.001415

                 ----------------------------------------
                 |  Time  |  1-e(secs)   |  2-e(secs)   |
                 ----------------------------------------
                 |  CPU   |       0.00   |       0.16   |
                 ----------------------------------------
                 |  WALL  |       0.00   |       0.16   |
                 ----------------------------------------
 -----------------------
 Performance information
 -----------------------

 Timer overhead =  3.91D-07 seconds/call

               Nr. of calls         CPU time (s)                 Wall time (s)                GFlops
             ---------------    -------------------     ------------------------------   -------------------
Name         Min   Avg   Max    Min     Avg     Max     Min     Avg     Max   Mx/calls   Min     Max     Sum
mp2: moin     1     1     1   0.23    0.23    0.23     0.23    0.23    0.23    0.23      0.0     0.0     0.0   
mp2: make     1     1     1   4.73E-2 4.73E-2 4.73E-2  4.95E-2 4.95E-2 4.95E-2 4.95E-2   0.0     0.0     0.0   
mp2: pija     1     1     1   6.35E-3 6.35E-3 6.35E-3  6.66E-3 6.66E-3 6.66E-3 6.66E-3   0.0     0.0     0.0   
mp2: wija     1     1     1   7.84E-3 7.84E-3 7.84E-3  7.84E-3 7.84E-3 7.84E-3 7.84E-3   0.0     0.0     0.0   
mp2: lai      1     1     1   7.86E-2 7.86E-2 7.86E-2  8.22E-2 8.22E-2 8.22E-2 8.22E-2   0.0     0.0     0.0   
mp2: back     1     1     1   4.64E-2 4.64E-2 4.64E-2  5.01E-2 5.01E-2 5.01E-2 5.01E-2   0.0     0.0     0.0   
mp2: nons     1     1     1   0.45    0.45    0.45     0.45    0.45    0.45    0.45      0.0     0.0     0.0   
mp2: laif     1     1     1   7.00E-2 7.00E-2 7.00E-2  7.00E-2 7.00E-2 7.00E-2 7.00E-2   0.0     0.0     0.0   
mp2: cphf     1     1     1   0.10    0.10    0.10     0.11    0.11    0.11    0.11      0.0     0.0     0.0   
mp2: wijf     1     1     1   7.02E-2 7.02E-2 7.02E-2  7.03E-2 7.03E-2 7.03E-2 7.03E-2   0.0     0.0     0.0   
mp2: sep      1     1     1   0.17    0.17    0.17     0.17    0.17    0.17    0.17      0.0     0.0     0.0   
mp2: tota     1     1     1    1.3     1.3     1.3      1.3     1.3     1.3     1.3      0.0     0.0     0.0   

 The average no. of pstat calls per process was 1.20D+01
 with a timing overhead of 4.70D-06s


 Task  times  cpu:        1.3s     wall:        1.4s


                                NWChem Input Module
                                -------------------


                         NWChem Numerical Gradients Module
                         ---------------------------------


 No. of totally-symmetric internal modes =  12

                                 NWChem SCF Module
                                 -----------------



  ao basis        = "ao basis"
  functions       =    48
  atoms           =     6
  closed shells   =    10
  open shells     =     0
  charge          =   0.00
  wavefunction    = RHF 
  input vectors   = ./input.movecs
  output vectors  = ./input.movecs
  use symmetry    = F
  symmetry adapt  = F


 Summary of "ao basis" -> "ao basis" (spherical)
 ------------------------------------------------------------------------------
       Tag                 Description            Shells   Functions and Types
 ---------------- ------------------------------  ------  ---------------------
 O                          cc-pvdz                  6       14   3s2p1d
 H                          cc-pvdz                  3        5   2s1p



  The SCF is already converged 

         Total SCF energy =   -152.055257147910



                   Four-Index Transformation
                   -------------------------
          Number of basis functions:             48
          Number of shells:                      24
          Number of occupied orbitals:           10
          Number of occ. correlated orbitals:    10
          Block length:                          16
          Superscript MO index range:      1 -   10
          Subscript MO index range:        1 -   48
          MO coefficients read from:  ./input.movecs           
          Number of operator matrices in core:  110
          Half-transformed integrals produced

     Pass:    1     Index range:    1  -   10     Time:      0.30
 ------------------------------------------
 MP2 Energy (coupled cluster initial guess)
 ------------------------------------------
 Reference energy:           -152.055257147909629
 MP2 Corr. energy:             -0.409625546237045
 Total MP2 energy:           -152.464882694146667


 ****************************************************************************
              the segmented parallel ccsd program:    1 nodes
 ****************************************************************************




 level of theory    ccsd
 number of core         0
 number of occupied    10
 number of virtual     38
 number of deleted      0
 total functions       48
 number of shells      24
 basis label          566



   ***** ccsd parameters *****
   iprt   =     0
   convi  =  0.100E-05
   maxit  =    20
   mxvec  =     5
 memory             65529828
  Using  1 OpenMP thread(s) in CCSD
  Restarting from old vector in ./input.t2


-------------------------------------------------------------------------
 iter     correlation     delta       rms       T2     Non-T2      Main
             energy      energy      error      ampl     ampl      Block
                                                time     time      time
-------------------------------------------------------------------------
 g_st2 size:       1 MB
 mem. avail      499 MB
   1     -0.4281069890 -4.281D-01  4.198D-07     0.78     0.00     0.56
 g_st2 size:       1 MB
 mem. avail      499 MB
   2     -0.4281069997 -1.069D-08  1.572D-07     0.35     0.00     0.14
                  *************converged*************
-------------------------------------------------------------------------

 -----------
 CCSD Energy
 -----------
 Reference energy:            -152.055257147909629
 CCSD corr. energy:             -0.428106999700468
 Total CCSD energy:           -152.483364147610104


 --------------------------------
 Spin Component Scaled (SCS) CCSD
 --------------------------------
 Same spin contribution:                 -0.092233617500724
 Same spin scaling factor:                1.130000000000000
 Opposite spin contribution:             -0.335873382199744
 Opposite spin scaling fact.:             1.270000000000000
 SCS-CCSD correlation energy:            -0.530783183169492
 Total SCS-CCSD energy:                -152.586040331079118

 routine      calls  cpu(0)   cpu-min  cpu-ave  cpu-max   i/o 
 aoccsd          1     0.01     0.01     0.01     0.01    0.00
 iterdrv         1     0.01     0.01     0.01     0.01    0.00
 pampt           2     0.01     0.01     0.01     0.01    0.00
 t2pm            2     0.03     0.03     0.03     0.03    0.00
 sxy             2     0.01     0.01     0.01     0.01    0.00
 ints        85148     0.40     0.40     0.40     0.40    0.00
 f_write       600     0.01     0.01     0.01     0.01    0.00
 t2eri         600     0.13     0.13     0.13     0.13    0.00
 idx2          600     0.10     0.10     0.10     0.10    0.00
 idx34           2     0.04     0.04     0.04     0.04    0.00
 ht2pm           2     0.03     0.03     0.03     0.03    0.00
 itm             2     0.37     0.37     0.37     0.37    0.00
 pdiis           2     0.00     0.00     0.00     0.00    0.00
 r_read        300     0.00     0.00     0.00     0.00    0.00
 Total                 1.14     1.14     1.14     1.14    0.00
 Reference energy        -152.48336415


 Saving state for ccsd with suffix numg
        ./input.movecs
        ./input.t2

 Finite difference step  1.00000D-02
 Use five point formula F

                                 NWChem SCF Module
                                 -----------------



  ao basis        = "ao basis"
  functions       =    48
  atoms           =     6
  closed shells   =    10
  open shells     =     0
  charge          =   0.00
  wavefunction    = RHF 
  input vectors   = ./input.movecs
  output vectors  = ./input.movecs
  use symmetry    = F
  symmetry adapt  = F


 Summary of "ao basis" -> "ao basis" (spherical)
 ------------------------------------------------------------------------------
       Tag                 Description            Shells   Functions and Types
 ---------------- ------------------------------  ------  ---------------------
 O                          cc-pvdz                  6       14   3s2p1d
 H                          cc-pvdz                  3        5   2s1p



 Forming initial guess at       3.1s


 Loading old vectors from job with title :




 Starting SCF solution at       3.1s



 ----------------------------------------------
         Quadratically convergent ROHF

 Convergence threshold     :          1.000E-06
 Maximum no. of iterations :           30
 Final Fock-matrix accuracy:          1.000E-08
 ----------------------------------------------


 Integral file          = ./input.aoints.0
 Record size in doubles =  65536        No. of integs per rec  =  43688
 Max. records in memory =     23        Max. records in file   = 401706
 No. of bits per label  =      8        No. of bits per value  =     64


 #quartets = 3.300D+04 #integrals = 4.270D+05 #direct =  0.0% #cached =100.0%


              iter       energy          gnorm     gmax       time
             ----- ------------------- --------- --------- --------
                 1     -152.0551762362  1.03D-02  2.42D-03      3.1
                 2     -152.0551842834  6.08D-05  1.63D-05      3.2
                 3     -152.0551842840  5.66D-08  1.51D-08      3.2


       Final RHF  results 
       ------------------ 

         Total SCF energy =   -152.055184284003
      One-electron energy =   -273.588901704792
      Two-electron energy =     89.499354725307
 Nuclear repulsion energy =     32.034362695482

        Time for solution =      0.1s


             Final eigenvalues
             -----------------

              1      
    1  -20.5550
    2  -20.5544
    3   -1.3339
    4   -1.3331
    5   -0.7010
    6   -0.6977
    7   -0.5653
    8   -0.5648
    9   -0.4963
   10   -0.4936
   11    0.1619
   12    0.2049
   13    0.2564
   14    0.2746
   15    0.7772
   16    0.7967
   17    0.8298
   18    0.8568
   19    1.1574
   20    1.1630

                       ROHF Final Molecular Orbital Analysis
                       -------------------------------------

 Vector    2  Occ=2.000000D+00  E=-2.055442D+01
              MO Center=  1.3D+00, -5.1D-01,  1.3D+00, r^2= 1.5D-02
   Bfn.  Coefficient  Atom+Function         Bfn.  Coefficient  Atom+Function  
  ----- ------------  ---------------      ----- ------------  ---------------
     1      1.000883  1 O  s          

 Vector    3  Occ=2.000000D+00  E=-1.333921D+00
              MO Center=  6.3D-01, -1.7D-01,  7.0D-01, r^2= 3.2D+00
   Bfn.  Coefficient  Atom+Function         Bfn.  Coefficient  Atom+Function  
  ----- ------------  ---------------      ----- ------------  ---------------
     2      0.384901  1 O  s                  3      0.331631  1 O  s          
    26      0.221711  4 O  s                 27      0.190374  4 O  s          
    20      0.164603  3 H  s                 15      0.162248  2 H  s          

 Vector    4  Occ=2.000000D+00  E=-1.333136D+00
              MO Center= -6.0D-01,  2.3D-01, -7.0D-01, r^2= 3.2D+00
   Bfn.  Coefficient  Atom+Function         Bfn.  Coefficient  Atom+Function  
  ----- ------------  ---------------      ----- ------------  ---------------
    26      0.384829  4 O  s                 27      0.335271  4 O  s          
     2     -0.221258  1 O  s                  3     -0.194562  1 O  s          
    39      0.165071  5 H  s                 44      0.160908  6 H  s          

 Vector    5  Occ=2.000000D+00  E=-7.009732D-01
              MO Center= -5.4D-02,  9.5D-02, -1.0D-01, r^2= 4.3D+00
   Bfn.  Coefficient  Atom+Function         Bfn.  Coefficient  Atom+Function  
  ----- ------------  ---------------      ----- ------------  ---------------
     4      0.316108  1 O  px                29      0.314540  4 O  py         
    39      0.239736  5 H  s                 44     -0.236224  6 H  s          
    20      0.222777  3 H  s                 15     -0.220243  2 H  s          
    28     -0.159747  4 O  px         

 Vector    6  Occ=2.000000D+00  E=-6.976921D-01
              MO Center=  1.2D-01,  4.3D-02,  1.0D-01, r^2= 4.3D+00
   Bfn.  Coefficient  Atom+Function         Bfn.  Coefficient  Atom+Function  
  ----- ------------  ---------------      ----- ------------  ---------------
     4      0.342278  1 O  px                29     -0.297149  4 O  py         
    20      0.240379  3 H  s                 15     -0.238146  2 H  s          
    39     -0.224577  5 H  s                 44      0.221110  6 H  s          
     7      0.158051  1 O  px         

 Vector    7  Occ=2.000000D+00  E=-5.653285D-01
              MO Center=  1.2D+00, -5.3D-01,  1.3D+00, r^2= 9.9D-01
   Bfn.  Coefficient  Atom+Function         Bfn.  Coefficient  Atom+Function  
  ----- ------------  ---------------      ----- ------------  ---------------
     5      0.487133  1 O  py                 3     -0.339319  1 O  s          
     8      0.329645  1 O  py                15      0.202518  2 H  s          
    20      0.201003  3 H  s                  6      0.182482  1 O  pz         

 Vector    8  Occ=2.000000D+00  E=-5.647612D-01
              MO Center= -1.3D+00,  3.3D-01, -1.3D+00, r^2= 9.9D-01
   Bfn.  Coefficient  Atom+Function         Bfn.  Coefficient  Atom+Function  
  ----- ------------  ---------------      ----- ------------  ---------------
    28      0.469499  4 O  px                27     -0.336478  4 O  s          
    31      0.318899  4 O  px                29      0.209573  4 O  py         
    44      0.202466  6 H  s                 39      0.199835  5 H  s          
    30     -0.169412  4 O  pz         

 Vector    9  Occ=2.000000D+00  E=-4.963371D-01
              MO Center= -2.9D-02, -5.8D-02, -2.9D-03, r^2= 4.3D+00
   Bfn.  Coefficient  Atom+Function         Bfn.  Coefficient  Atom+Function  
  ----- ------------  ---------------      ----- ------------  ---------------
    30     -0.419375  4 O  pz                 6      0.407964  1 O  pz         
    33     -0.331799  4 O  pz                 9      0.322688  1 O  pz         
     5     -0.162690  1 O  py         

 Vector   10  Occ=2.000000D+00  E=-4.935693D-01
              MO Center= -2.7D-02, -6.3D-02,  1.1D-03, r^2= 4.3D+00
   Bfn.  Coefficient  Atom+Function         Bfn.  Coefficient  Atom+Function  
  ----- ------------  ---------------      ----- ------------  ---------------
    30      0.417247  4 O  pz                 6      0.408233  1 O  pz         
    33      0.327091  4 O  pz                 9      0.320631  1 O  pz         
     5     -0.175638  1 O  py         

 Vector   11  Occ=0.000000D+00  E= 1.618915D-01
              MO Center=  9.2D-02,  3.2D-01, -3.3D-02, r^2= 5.7D+00
   Bfn.  Coefficient  Atom+Function         Bfn.  Coefficient  Atom+Function  
  ----- ------------  ---------------      ----- ------------  ---------------
    27      0.669915  4 O  s                  3      0.659129  1 O  s          
    16     -0.604054  2 H  s                 45     -0.578984  6 H  s          
    40     -0.530826  5 H  s                 21     -0.482070  3 H  s          
    31      0.204983  4 O  px                 8      0.198385  1 O  py         

 Vector   12  Occ=0.000000D+00  E= 2.049486D-01
              MO Center=  4.9D-01,  7.4D-01,  1.6D-01, r^2= 7.9D+00
   Bfn.  Coefficient  Atom+Function         Bfn.  Coefficient  Atom+Function  
  ----- ------------  ---------------      ----- ------------  ---------------
    21      0.957549  3 H  s                 40     -0.858237  5 H  s          
     3     -0.685983  1 O  s                 27      0.652941  4 O  s          
     8     -0.246304  1 O  py                45     -0.226783  6 H  s          
    32      0.218062  4 O  py                16      0.186952  2 H  s          

 Vector   13  Occ=0.000000D+00  E= 2.564033D-01
              MO Center= -1.7D-02,  5.6D-01, -4.0D-01, r^2= 7.0D+00
   Bfn.  Coefficient  Atom+Function         Bfn.  Coefficient  Atom+Function  
  ----- ------------  ---------------      ----- ------------  ---------------
    40      1.163552  5 H  s                 45     -1.007180  6 H  s          
    21      0.901855  3 H  s                 16     -0.717242  2 H  s          
    32     -0.464721  4 O  py                 7     -0.351419  1 O  px         
    31      0.208021  4 O  px                29     -0.205113  4 O  py         
     4     -0.163910  1 O  px         

 Vector   14  Occ=0.000000D+00  E= 2.746108D-01
              MO Center=  1.5D-01, -3.7D-02,  2.9D-01, r^2= 5.6D+00
   Bfn.  Coefficient  Atom+Function         Bfn.  Coefficient  Atom+Function  
  ----- ------------  ---------------      ----- ------------  ---------------
    16      1.360192  2 H  s                 45     -1.159615  6 H  s          
    21     -0.864640  3 H  s                 40      0.575359  5 H  s          
     7      0.534690  1 O  px                27      0.345928  4 O  s          
    32     -0.318030  4 O  py                31      0.285895  4 O  px         
     3     -0.284362  1 O  s                  4      0.220130  1 O  px         

 Vector   15  Occ=0.000000D+00  E= 7.771998D-01
              MO Center=  1.0D-01,  4.6D-02,  1.4D-02, r^2= 4.7D+00
   Bfn.  Coefficient  Atom+Function         Bfn.  Coefficient  Atom+Function  
  ----- ------------  ---------------      ----- ------------  ---------------
    44      0.757210  6 H  s                 15      0.689180  2 H  s          
    20     -0.646403  3 H  s                 39     -0.544229  5 H  s          
    45     -0.467760  6 H  s                 21      0.447901  3 H  s          
    16     -0.428735  2 H  s                 40      0.391701  5 H  s          
     7      0.327775  1 O  px                32      0.275842  4 O  py         

 Vector   16  Occ=0.000000D+00  E= 7.967356D-01
              MO Center= -9.0D-02,  4.0D-01, -1.9D-01, r^2= 5.7D+00
   Bfn.  Coefficient  Atom+Function         Bfn.  Coefficient  Atom+Function  
  ----- ------------  ---------------      ----- ------------  ---------------
    39      0.849485  5 H  s                 20     -0.660868  3 H  s          
    40     -0.631204  5 H  s                 15      0.579018  2 H  s          
    21      0.517142  3 H  s                 16     -0.504283  2 H  s          
    44     -0.501429  6 H  s                 45      0.483730  6 H  s          
    32     -0.276037  4 O  py                 7      0.252744  1 O  px         

 Vector   17  Occ=0.000000D+00  E= 8.297703D-01
              MO Center=  4.7D-01,  2.9D-01,  3.1D-01, r^2= 5.1D+00
   Bfn.  Coefficient  Atom+Function         Bfn.  Coefficient  Atom+Function  
  ----- ------------  ---------------      ----- ------------  ---------------
    20      0.745835  3 H  s                 21     -0.541251  3 H  s          
    39      0.523196  5 H  s                 44      0.510650  6 H  s          
    15      0.454091  2 H  s                 40     -0.351678  5 H  s          
    45     -0.307107  6 H  s                  5     -0.221017  1 O  py         
    16     -0.221021  2 H  s                  3      0.198653  1 O  s          

 Vector   18  Occ=0.000000D+00  E= 8.568246D-01
              MO Center= -5.8D-02,  1.9D-01, -1.3D-01, r^2= 4.7D+00
   Bfn.  Coefficient  Atom+Function         Bfn.  Coefficient  Atom+Function  
  ----- ------------  ---------------      ----- ------------  ---------------
    15      0.725076  2 H  s                 44     -0.673035  6 H  s          
    16     -0.651335  2 H  s                 45      0.603276  6 H  s          
    39     -0.495745  5 H  s                 20      0.350150  3 H  s          
    40      0.321640  5 H  s                 27     -0.277286  4 O  s          
     3      0.231211  1 O  s                 28      0.218688  4 O  px         

 Vector   19  Occ=0.000000D+00  E= 1.157406D+00
              MO Center= -4.0D-02, -4.8D-02, -1.6D-02, r^2= 5.0D+00
   Bfn.  Coefficient  Atom+Function         Bfn.  Coefficient  Atom+Function  
  ----- ------------  ---------------      ----- ------------  ---------------
     8      0.775260  1 O  py                31      0.776775  4 O  px         
     3      0.511433  1 O  s                 27      0.506392  4 O  s          
     5     -0.466189  1 O  py                28     -0.452037  4 O  px         
    44     -0.417959  6 H  s                 15     -0.385958  2 H  s          
    33     -0.359669  4 O  pz                20     -0.350013  3 H  s          

 Vector   20  Occ=0.000000D+00  E= 1.162971D+00
              MO Center= -1.3D-01, -7.9D-02, -9.7D-02, r^2= 5.0D+00
   Bfn.  Coefficient  Atom+Function         Bfn.  Coefficient  Atom+Function  
  ----- ------------  ---------------      ----- ------------  ---------------
     8      0.785411  1 O  py                31     -0.765155  4 O  px         
    27     -0.526986  4 O  s                  3      0.504587  1 O  s          
    28      0.492138  4 O  px                32     -0.492721  4 O  py         
     5     -0.482114  1 O  py                39      0.396097  5 H  s          
    15     -0.360340  2 H  s                 20     -0.348824  3 H  s          


 center of mass
 --------------
 x =  -0.03006440 y =  -0.06241956 z =  -0.00243167

 moments of inertia (a.u.)
 ------------------
         267.844231969006          70.393968570930        -225.869125397252
          70.393968570930         459.018775081134          73.700878089679
        -225.869125397252          73.700878089679         248.025508003607

  Mulliken analysis of the total density
  --------------------------------------

    Atom       Charge   Shell Charges
 -----------   ------   -------------------------------------------------------
    1 O    8     8.33   2.00  0.83  0.83  2.82  1.83  0.01
    2 H    1     0.84   0.68  0.07  0.08
    3 H    1     0.84   0.68  0.07  0.09
    4 O    8     8.33   2.00  0.83  0.83  2.81  1.83  0.01
    5 H    1     0.84   0.68  0.07  0.09
    6 H    1     0.83   0.67  0.07  0.08

       Multipole analysis of the density wrt the origin
       ------------------------------------------------

     L   x y z        total         open         nuclear
     -   - - -        -----         ----         -------
     0   0 0 0      0.000000      0.000000     20.000000

     1   1 0 0      0.476235      0.000000     -0.024026
     1   0 1 0      1.039118      0.000000      0.005843
     1   0 0 1      0.011812      0.000000     -0.028126

     2   2 0 0    -11.687412      0.000000    119.324329
     2   1 1 0      1.314185      0.000000    -37.343427
     2   1 0 1     -0.833067      0.000000    124.294929
     2   0 2 0     -8.486740      0.000000     17.249488
     2   0 1 1      0.666752      0.000000    -40.119984
     2   0 0 2     -7.398572      0.000000    136.437544


 Parallel integral file used      10 records with       0 large values



                   Four-Index Transformation
                   -------------------------
          Number of basis functions:             48
          Number of shells:                      24
          Number of occupied orbitals:           10
          Number of occ. correlated orbitals:    10
          Block length:                          16
          Superscript MO index range:      1 -   10
          Subscript MO index range:        1 -   48
          MO coefficients read from:  ./input.movecs           
          Number of operator matrices in core:  110
          Half-transformed integrals produced

     Pass:    1     Index range:    1  -   10     Time:      0.29
 ------------------------------------------
 MP2 Energy (coupled cluster initial guess)
 ------------------------------------------
 Reference energy:           -152.055184284002792
 MP2 Corr. energy:             -0.409653547722745
 Total MP2 energy:           -152.464837831725532


 ****************************************************************************
              the segmented parallel ccsd program:    1 nodes
 ****************************************************************************




 level of theory    ccsd
 number of core         0
 number of occupied    10
 number of virtual     38
 number of deleted      0
 total functions       48
 number of shells      24
 basis label          566



   ***** ccsd parameters *****
   iprt   =     0
   convi  =  0.100E-05
   maxit  =    20
   mxvec  =     5
 memory             65529828
  Using  1 OpenMP thread(s) in CCSD
  Restarting from old vector in ./input.t2


-------------------------------------------------------------------------
 iter     correlation     delta       rms       T2     Non-T2      Main
             energy      energy      error      ampl     ampl      Block
                                                time     time      time
-------------------------------------------------------------------------
 g_st2 size:       1 MB
 mem. avail      499 MB
   1     -0.4140126513 -4.140D-01  1.032D-01     0.78     0.00     0.56
 g_st2 size:       1 MB
 mem. avail      499 MB
   2     -0.4241377620 -1.013D-02  2.159D-01     0.37     0.00     0.14
 g_st2 size:       1 MB
 mem. avail      499 MB
   3     -0.4269501800 -2.812D-03  5.075D-02     0.35     0.00     0.14
 g_st2 size:       1 MB
 mem. avail      499 MB
   4     -0.4278077721 -8.576D-04  2.327D-02     0.35     0.00     0.14
 g_st2 size:       1 MB
 mem. avail      499 MB
   5     -0.4280203186 -2.125D-04  9.297D-04     0.36     0.00     0.14
 g_st2 size:       1 MB
 mem. avail      499 MB
   6     -0.4281202739 -9.996D-05  1.674D-04     0.35     0.00     0.14
 g_st2 size:       1 MB
 mem. avail      499 MB
   7     -0.4281388978 -1.862D-05  1.702D-04     0.36     0.00     0.14
 g_st2 size:       1 MB
 mem. avail      499 MB
   8     -0.4281377392  1.159D-06  1.065D-04     0.37     0.00     0.14
 g_st2 size:       1 MB
 mem. avail      499 MB
   9     -0.4281371339  6.053D-07  5.173D-05     0.35     0.00     0.14
 g_st2 size:       1 MB
 mem. avail      499 MB
  10     -0.4281359603  1.174D-06  2.215D-05     0.35     0.00     0.14
 g_st2 size:       1 MB
 mem. avail      499 MB
  11     -0.4281359130  4.728D-08  1.551D-05     0.35     0.00     0.14
 g_st2 size:       1 MB
 mem. avail      499 MB
  12     -0.4281358731  3.991D-08  2.493D-06     0.36     0.00     0.14
 g_st2 size:       1 MB
 mem. avail      499 MB
  13     -0.4281358842 -1.115D-08  6.459D-07     0.35     0.00     0.14
                  *************converged*************
-------------------------------------------------------------------------

 -----------
 CCSD Energy
 -----------
 Reference energy:            -152.055184284002792
 CCSD corr. energy:             -0.428135884239274
 Total CCSD energy:           -152.483320168242074


 --------------------------------
 Spin Component Scaled (SCS) CCSD
 --------------------------------
 Same spin contribution:                 -0.092232863943328
 Same spin scaling factor:                1.130000000000000
 Opposite spin contribution:             -0.335903020295946
 Opposite spin scaling fact.:             1.270000000000000
 SCS-CCSD correlation energy:            -0.530819972031812
 Total SCS-CCSD energy:                -152.586004256034613

 routine      calls  cpu(0)   cpu-min  cpu-ave  cpu-max   i/o 
 aoccsd          1     0.01     0.01     0.01     0.01    0.00
 iterdrv         1     0.01     0.01     0.01     0.01    0.00
 pampt          13     0.04     0.04     0.04     0.04    0.00
 t2pm           13     0.18     0.18     0.18     0.18    0.00
 sxy            13     0.03     0.03     0.03     0.03    0.00
 ints        85122     0.40     0.40     0.40     0.40    0.00
 f_write       600     0.00     0.00     0.00     0.00    0.00
 t2eri        3900     0.87     0.87     0.87     0.87    0.00
 idx2         3900     0.63     0.63     0.63     0.63    0.00
 idx34          13     0.24     0.24     0.24     0.24    0.00
 ht2pm          13     0.20     0.20     0.20     0.20    0.00
 itm            13     2.43     2.43     2.43     2.43    0.00
 pdiis          13     0.01     0.01     0.01     0.01    0.00
 r_read       3600     0.04     0.04     0.04     0.04    0.00
 Total                 5.09     5.09     5.09     5.09    0.00
 step     1 energy        -152.48332017
                                 NWChem SCF Module
                                 -----------------



  ao basis        = "ao basis"
  functions       =    48
  atoms           =     6
  closed shells   =    10
  open shells     =     0
  charge          =   0.00
  wavefunction    = RHF 
  input vectors   = ./input.movecs
  output vectors  = ./input.movecs
  use symmetry    = F
  symmetry adapt  = F


 Summary of "ao basis" -> "ao basis" (spherical)
 ------------------------------------------------------------------------------
       Tag                 Description            Shells   Functions and Types
 ---------------- ------------------------------  ------  ---------------------
 O                          cc-pvdz                  6       14   3s2p1d
 H                          cc-pvdz                  3        5   2s1p



 Forming initial guess at       8.7s


 Loading old vectors from job with title :




 Starting SCF solution at       8.7s



 ----------------------------------------------
         Quadratically convergent ROHF

 Convergence threshold     :          1.000E-06
 Maximum no. of iterations :           30
 Final Fock-matrix accuracy:          1.000E-08
 ----------------------------------------------


 Integral file          = ./input.aoints.0
 Record size in doubles =  65536        No. of integs per rec  =  43688
 Max. records in memory =     23        Max. records in file   = 401706
 No. of bits per label  =      8        No. of bits per value  =     64


 #quartets = 3.306D+04 #integrals = 4.283D+05 #direct =  0.0% #cached =100.0%


              iter       energy          gnorm     gmax       time
             ----- ------------------- --------- --------- --------
                 1     -152.0553057241  1.03D-02  2.42D-03      8.6
                 2     -152.0553137767  6.16D-05  1.78D-05      8.6
                 3     -152.0553137773  5.68D-08  1.75D-08      8.7


       Final RHF  results 
       ------------------ 

         Total SCF energy =   -152.055313777291
      One-electron energy =   -273.678737280480
      Two-electron energy =     89.544510787666
 Nuclear repulsion energy =     32.078912715522

        Time for solution =      0.1s


             Final eigenvalues
             -----------------

              1      
    1  -20.5547
    2  -20.5543
    3   -1.3340
    4   -1.3332
    5   -0.7014
    6   -0.6977
    7   -0.5652
    8   -0.5646
    9   -0.4963
   10   -0.4934
   11    0.1623
   12    0.2049
   13    0.2566
   14    0.2750
   15    0.7782
   16    0.7963
   17    0.8300
   18    0.8575
   19    1.1571
   20    1.1633

                       ROHF Final Molecular Orbital Analysis
                       -------------------------------------

 Vector    2  Occ=2.000000D+00  E=-2.055429D+01
              MO Center=  1.3D+00, -5.1D-01,  1.3D+00, r^2= 1.5D-02
   Bfn.  Coefficient  Atom+Function         Bfn.  Coefficient  Atom+Function  
  ----- ------------  ---------------      ----- ------------  ---------------
     1      1.000882  1 O  s          

 Vector    3  Occ=2.000000D+00  E=-1.333974D+00
              MO Center= -5.7D-01,  2.2D-01, -6.6D-01, r^2= 3.3D+00
   Bfn.  Coefficient  Atom+Function         Bfn.  Coefficient  Atom+Function  
  ----- ------------  ---------------      ----- ------------  ---------------
    26      0.381835  4 O  s                 27      0.329812  4 O  s          
     2      0.226974  1 O  s                  3      0.193678  1 O  s          
    39      0.162235  5 H  s                 44      0.161563  6 H  s          

 Vector    4  Occ=2.000000D+00  E=-1.333178D+00
              MO Center=  6.0D-01, -1.6D-01,  6.7D-01, r^2= 3.3D+00
   Bfn.  Coefficient  Atom+Function         Bfn.  Coefficient  Atom+Function  
  ----- ------------  ---------------      ----- ------------  ---------------
     2      0.381599  1 O  s                  3      0.332367  1 O  s          
    26     -0.226626  4 O  s                 27     -0.198564  4 O  s          
    20      0.162953  3 H  s                 15      0.161125  2 H  s          

 Vector    5  Occ=2.000000D+00  E=-7.014156D-01
              MO Center= -5.3D-01,  2.5D-01, -6.6D-01, r^2= 3.5D+00
   Bfn.  Coefficient  Atom+Function         Bfn.  Coefficient  Atom+Function  
  ----- ------------  ---------------      ----- ------------  ---------------
    29      0.367784  4 O  py                39      0.280133  5 H  s          
    44     -0.278624  6 H  s                  4      0.238085  1 O  px         
    28     -0.190434  4 O  px                20      0.167749  3 H  s          
    32      0.166861  4 O  py                15     -0.165963  2 H  s          

 Vector    6  Occ=2.000000D+00  E=-6.976752D-01
              MO Center=  5.9D-01, -1.1D-01,  6.6D-01, r^2= 3.6D+00
   Bfn.  Coefficient  Atom+Function         Bfn.  Coefficient  Atom+Function  
  ----- ------------  ---------------      ----- ------------  ---------------
     4      0.400598  1 O  px                20      0.281123  3 H  s          
    15     -0.278838  2 H  s                 29     -0.224302  4 O  py         
     7      0.184716  1 O  px                39     -0.169139  5 H  s          
    44      0.168259  6 H  s          

 Vector    7  Occ=2.000000D+00  E=-5.652100D-01
              MO Center=  1.2D+00, -5.2D-01,  1.2D+00, r^2= 1.1D+00
   Bfn.  Coefficient  Atom+Function         Bfn.  Coefficient  Atom+Function  
  ----- ------------  ---------------      ----- ------------  ---------------
     5      0.483829  1 O  py                 3     -0.337613  1 O  s          
     8      0.327310  1 O  py                15      0.201175  2 H  s          
    20      0.200272  3 H  s                  6      0.182310  1 O  pz         

 Vector    8  Occ=2.000000D+00  E=-5.646492D-01
              MO Center= -1.3D+00,  3.2D-01, -1.2D+00, r^2= 1.2D+00
   Bfn.  Coefficient  Atom+Function         Bfn.  Coefficient  Atom+Function  
  ----- ------------  ---------------      ----- ------------  ---------------
    28      0.463772  4 O  px                27     -0.334234  4 O  s          
    31      0.315309  4 O  px                29      0.210014  4 O  py         
    39      0.200149  5 H  s                 44      0.199156  6 H  s          
    30     -0.175607  4 O  pz         

 Vector    9  Occ=2.000000D+00  E=-4.963075D-01
              MO Center= -1.5D-01, -1.7D-02, -1.3D-01, r^2= 4.2D+00
   Bfn.  Coefficient  Atom+Function         Bfn.  Coefficient  Atom+Function  
  ----- ------------  ---------------      ----- ------------  ---------------
    30      0.437022  4 O  pz                 6     -0.387423  1 O  pz         
    33      0.345699  4 O  pz                 9     -0.306600  1 O  pz         
     5      0.154394  1 O  py         

 Vector   10  Occ=2.000000D+00  E=-4.934308D-01
              MO Center=  1.0D-01, -1.1D-01,  1.3D-01, r^2= 4.3D+00
   Bfn.  Coefficient  Atom+Function         Bfn.  Coefficient  Atom+Function  
  ----- ------------  ---------------      ----- ------------  ---------------
     6      0.427310  1 O  pz                30      0.394421  4 O  pz         
     9      0.335666  1 O  pz                33      0.308961  4 O  pz         
     5     -0.184090  1 O  py         

 Vector   11  Occ=0.000000D+00  E= 1.622581D-01
              MO Center=  9.1D-02,  3.2D-01, -3.4D-02, r^2= 5.7D+00
   Bfn.  Coefficient  Atom+Function         Bfn.  Coefficient  Atom+Function  
  ----- ------------  ---------------      ----- ------------  ---------------
    27      0.671716  4 O  s                  3      0.659189  1 O  s          
    16     -0.600814  2 H  s                 45     -0.574196  6 H  s          
    40     -0.537332  5 H  s                 21     -0.485687  3 H  s          
    31      0.201672  4 O  px                 8      0.198930  1 O  py         

 Vector   12  Occ=0.000000D+00  E= 2.048901D-01
              MO Center=  4.8D-01,  7.5D-01,  1.6D-01, r^2= 7.9D+00
   Bfn.  Coefficient  Atom+Function         Bfn.  Coefficient  Atom+Function  
  ----- ------------  ---------------      ----- ------------  ---------------
    21      0.955256  3 H  s                 40     -0.864713  5 H  s          
     3     -0.684211  1 O  s                 27      0.651391  4 O  s          
     8     -0.246077  1 O  py                32      0.221962  4 O  py         
    45     -0.218071  6 H  s                 16      0.186688  2 H  s          

 Vector   13  Occ=0.000000D+00  E= 2.566497D-01
              MO Center= -3.9D-03,  5.4D-01, -3.8D-01, r^2= 7.0D+00
   Bfn.  Coefficient  Atom+Function         Bfn.  Coefficient  Atom+Function  
  ----- ------------  ---------------      ----- ------------  ---------------
    40      1.152326  5 H  s                 45     -1.011784  6 H  s          
    21      0.906344  3 H  s                 16     -0.723358  2 H  s          
    32     -0.462026  4 O  py                 7     -0.353922  1 O  px         
    31      0.209861  4 O  px                29     -0.203707  4 O  py         
     4     -0.165160  1 O  px         

 Vector   14  Occ=0.000000D+00  E= 2.750099D-01
              MO Center=  1.5D-01, -4.1D-02,  2.8D-01, r^2= 5.6D+00
   Bfn.  Coefficient  Atom+Function         Bfn.  Coefficient  Atom+Function  
  ----- ------------  ---------------      ----- ------------  ---------------
    16      1.359137  2 H  s                 45     -1.168337  6 H  s          
    21     -0.858533  3 H  s                 40      0.574454  5 H  s          
     7      0.533038  1 O  px                27      0.353214  4 O  s          
    32     -0.318644  4 O  py                 3     -0.287505  1 O  s          
    31      0.286344  4 O  px                 4      0.219446  1 O  px         

 Vector   15  Occ=0.000000D+00  E= 7.782150D-01
              MO Center=  1.8D-01,  4.8D-02,  1.2D-01, r^2= 4.8D+00
   Bfn.  Coefficient  Atom+Function         Bfn.  Coefficient  Atom+Function  
  ----- ------------  ---------------      ----- ------------  ---------------
    44      0.710751  6 H  s                 15      0.702986  2 H  s          
    20     -0.684407  3 H  s                 39     -0.546932  5 H  s          
    21      0.478645  3 H  s                 16     -0.448255  2 H  s          
    45     -0.425915  6 H  s                 40      0.390638  5 H  s          
     7      0.336873  1 O  px                32      0.268679  4 O  py         

 Vector   16  Occ=0.000000D+00  E= 7.963291D-01
              MO Center= -2.0D-01,  4.7D-01, -3.1D-01, r^2= 5.6D+00
   Bfn.  Coefficient  Atom+Function         Bfn.  Coefficient  Atom+Function  
  ----- ------------  ---------------      ----- ------------  ---------------
    39      0.896005  5 H  s                 40     -0.664773  5 H  s          
    20     -0.627824  3 H  s                 15      0.552378  2 H  s          
    21      0.492660  3 H  s                 44     -0.483796  6 H  s          
    16     -0.479483  2 H  s                 45      0.465332  6 H  s          
    32     -0.281130  4 O  py                 7      0.239924  1 O  px         

 Vector   17  Occ=0.000000D+00  E= 8.299690D-01
              MO Center=  4.9D-01,  2.5D-01,  3.3D-01, r^2= 5.0D+00
   Bfn.  Coefficient  Atom+Function         Bfn.  Coefficient  Atom+Function  
  ----- ------------  ---------------      ----- ------------  ---------------
    20      0.744583  3 H  s                 44      0.550434  6 H  s          
    21     -0.543267  3 H  s                 39      0.474035  5 H  s          
    15      0.462175  2 H  s                 45     -0.331686  6 H  s          
    40     -0.319015  5 H  s                  5     -0.222770  1 O  py         
    16     -0.222406  2 H  s                  3      0.199961  1 O  s          

 Vector   18  Occ=0.000000D+00  E= 8.574641D-01
              MO Center= -5.7D-02,  1.7D-01, -1.4D-01, r^2= 4.6D+00
   Bfn.  Coefficient  Atom+Function         Bfn.  Coefficient  Atom+Function  
  ----- ------------  ---------------      ----- ------------  ---------------
    15      0.727028  2 H  s                 44     -0.704065  6 H  s          
    16     -0.655584  2 H  s                 45      0.621343  6 H  s          
    39     -0.461208  5 H  s                 20      0.341092  3 H  s          
    40      0.299009  5 H  s                 27     -0.274038  4 O  s          
     3      0.231198  1 O  s                 28      0.220333  4 O  px         

 Vector   19  Occ=0.000000D+00  E= 1.157124D+00
              MO Center= -1.4D-01, -9.3D-03, -1.2D-01, r^2= 5.0D+00
   Bfn.  Coefficient  Atom+Function         Bfn.  Coefficient  Atom+Function  
  ----- ------------  ---------------      ----- ------------  ---------------
    31      0.812005  4 O  px                 8      0.737191  1 O  py         
    27      0.530801  4 O  s                  3      0.488310  1 O  s          
    28     -0.471461  4 O  px                 5     -0.441986  1 O  py         
    44     -0.435761  6 H  s                 15     -0.372734  2 H  s          
    33     -0.374081  4 O  pz                39     -0.337992  5 H  s          

 Vector   20  Occ=0.000000D+00  E= 1.163292D+00
              MO Center= -2.8D-02, -1.1D-01,  9.9D-03, r^2= 5.0D+00
   Bfn.  Coefficient  Atom+Function         Bfn.  Coefficient  Atom+Function  
  ----- ------------  ---------------      ----- ------------  ---------------
     8      0.816826  1 O  py                31     -0.742408  4 O  px         
     3      0.524675  1 O  s                 27     -0.507964  4 O  s          
     5     -0.501902  1 O  py                28      0.478024  4 O  px         
    32     -0.464402  4 O  py                15     -0.377120  2 H  s          
    39      0.376638  5 H  s                 20     -0.361553  3 H  s          


 center of mass
 --------------
 x =  -0.02720828 y =  -0.06311410 z =   0.00091177

 moments of inertia (a.u.)
 ------------------
         266.212477561643          70.124222959568        -224.504798569767
          70.124222959568         456.279417991235          73.367183949863
        -224.504798569767          73.367183949863         246.816960130369

  Mulliken analysis of the total density
  --------------------------------------

    Atom       Charge   Shell Charges
 -----------   ------   -------------------------------------------------------
    1 O    8     8.33   2.00  0.83  0.83  2.81  1.83  0.01
    2 H    1     0.84   0.68  0.07  0.08
    3 H    1     0.84   0.68  0.07  0.09
    4 O    8     8.33   2.00  0.83  0.83  2.82  1.83  0.01
    5 H    1     0.84   0.68  0.07  0.08
    6 H    1     0.83   0.68  0.07  0.08

       Multipole analysis of the density wrt the origin
       ------------------------------------------------

     L   x y z        total         open         nuclear
     -   - - -        -----         ----         -------
     0   0 0 0      0.000000      0.000000     20.000000

     1   1 0 0      0.469708      0.000000      0.024026
     1   0 1 0      1.039586      0.000000     -0.005843
     1   0 0 1      0.002172      0.000000      0.028126

     2   2 0 0    -11.661442      0.000000    118.723512
     2   1 1 0      1.305109      0.000000    -37.207503
     2   1 0 1     -0.792036      0.000000    123.594608
     2   0 2 0     -8.483435      0.000000     17.226807
     2   0 1 1      0.654833      0.000000    -39.954598
     2   0 0 2     -7.337167      0.000000    135.629468


 Parallel integral file used      10 records with       0 large values



                   Four-Index Transformation
                   -------------------------
          Number of basis functions:             48
          Number of shells:                      24
          Number of occupied orbitals:           10
          Number of occ. correlated orbitals:    10
          Block length:                          16
          Superscript MO index range:      1 -   10
          Subscript MO index range:        1 -   48
          MO coefficients read from:  ./input.movecs           
          Number of operator matrices in core:  110
          Half-transformed integrals produced

     Pass:    1     Index range:    1  -   10     Time:      0.29
 ------------------------------------------
 MP2 Energy (coupled cluster initial guess)
 ------------------------------------------
 Reference energy:           -152.055313777291104
 MP2 Corr. energy:             -0.409599058377514
 Total MP2 energy:           -152.464912835668628


 ****************************************************************************
              the segmented parallel ccsd program:    1 nodes
 ****************************************************************************




 level of theory    ccsd
 number of core         0
 number of occupied    10
 number of virtual     38
 number of deleted      0
 total functions       48
 number of shells      24
 basis label          566



   ***** ccsd parameters *****
   iprt   =     0
   convi  =  0.100E-05
   maxit  =    20
   mxvec  =     5
 memory             65529828
  Using  1 OpenMP thread(s) in CCSD
[...]
     5     -0.156893  1 O  py         

 Vector   10  Occ=2.000000D+00  E=-4.935442D-01
              MO Center=  3.2D-02, -8.2D-02,  6.3D-02, r^2= 4.3D+00
   Bfn.  Coefficient  Atom+Function         Bfn.  Coefficient  Atom+Function  
  ----- ------------  ---------------      ----- ------------  ---------------
     6      0.418127  1 O  pz                30      0.406572  4 O  pz         
     9      0.328410  1 O  pz                33      0.318583  4 O  pz         
     5     -0.177447  1 O  py         

 Vector   11  Occ=0.000000D+00  E= 1.621565D-01
              MO Center=  8.3D-02,  3.2D-01, -4.6D-02, r^2= 5.7D+00
   Bfn.  Coefficient  Atom+Function         Bfn.  Coefficient  Atom+Function  
  ----- ------------  ---------------      ----- ------------  ---------------
    27      0.673460  4 O  s                  3      0.657125  1 O  s          
    16     -0.601690  2 H  s                 45     -0.578631  6 H  s          
    40     -0.536649  5 H  s                 21     -0.480687  3 H  s          
    31      0.204108  4 O  px                 8      0.197376  1 O  py         

 Vector   12  Occ=0.000000D+00  E= 2.050836D-01
              MO Center=  4.9D-01,  7.4D-01,  1.6D-01, r^2= 7.9D+00
   Bfn.  Coefficient  Atom+Function         Bfn.  Coefficient  Atom+Function  
  ----- ------------  ---------------      ----- ------------  ---------------
    21      0.956698  3 H  s                 40     -0.860752  5 H  s          
     3     -0.689353  1 O  s                 27      0.650042  4 O  s          
     8     -0.247045  1 O  py                32      0.220126  4 O  py         
    45     -0.219774  6 H  s                 16      0.192397  2 H  s          

 Vector   13  Occ=0.000000D+00  E= 2.565457D-01
              MO Center= -1.3D-02,  5.5D-01, -4.1D-01, r^2= 7.0D+00
   Bfn.  Coefficient  Atom+Function         Bfn.  Coefficient  Atom+Function  
  ----- ------------  ---------------      ----- ------------  ---------------
    40      1.160004  5 H  s                 45     -1.017468  6 H  s          
    21      0.902647  3 H  s                 16     -0.712235  2 H  s          
    32     -0.465107  4 O  py                 7     -0.349585  1 O  px         
    31      0.210896  4 O  px                29     -0.205138  4 O  py         
     4     -0.162941  1 O  px         

 Vector   14  Occ=0.000000D+00  E= 2.748084D-01
              MO Center=  1.6D-01, -3.8D-02,  3.0D-01, r^2= 5.6D+00
   Bfn.  Coefficient  Atom+Function         Bfn.  Coefficient  Atom+Function  
  ----- ------------  ---------------      ----- ------------  ---------------
    16      1.365264  2 H  s                 45     -1.155838  6 H  s          
    21     -0.870807  3 H  s                 40      0.568943  5 H  s          
     7      0.536397  1 O  px                27      0.348222  4 O  s          
    32     -0.315788  4 O  py                 3     -0.283806  1 O  s          
    31      0.284235  4 O  px                 4      0.220706  1 O  px         

 Vector   15  Occ=0.000000D+00  E= 7.780879D-01
              MO Center=  5.7D-02,  7.0D-02, -3.6D-02, r^2= 4.8D+00
   Bfn.  Coefficient  Atom+Function         Bfn.  Coefficient  Atom+Function  
  ----- ------------  ---------------      ----- ------------  ---------------
    44      0.755230  6 H  s                 15      0.680379  2 H  s          
    20     -0.633518  3 H  s                 39     -0.574965  5 H  s          
    45     -0.467149  6 H  s                 21      0.436972  3 H  s          
    16     -0.421739  2 H  s                 40      0.413604  5 H  s          
     7      0.324253  1 O  px                32      0.282487  4 O  py         

 Vector   16  Occ=0.000000D+00  E= 7.968711D-01
              MO Center= -8.4D-02,  4.1D-01, -1.6D-01, r^2= 5.7D+00
   Bfn.  Coefficient  Atom+Function         Bfn.  Coefficient  Atom+Function  
  ----- ------------  ---------------      ----- ------------  ---------------
    39      0.855847  5 H  s                 20     -0.659141  3 H  s          
    40     -0.636073  5 H  s                 15      0.599401  2 H  s          
    16     -0.511490  2 H  s                 21      0.512860  3 H  s          
    44     -0.461883  6 H  s                 45      0.455845  6 H  s          
    32     -0.268332  4 O  py                 7      0.260133  1 O  px         

 Vector   17  Occ=0.000000D+00  E= 8.305701D-01
              MO Center=  4.7D-01,  2.8D-01,  2.8D-01, r^2= 5.1D+00
   Bfn.  Coefficient  Atom+Function         Bfn.  Coefficient  Atom+Function  
  ----- ------------  ---------------      ----- ------------  ---------------
    20      0.750338  3 H  s                 21     -0.545894  3 H  s          
    44      0.544109  6 H  s                 39      0.504402  5 H  s          
    15      0.428596  2 H  s                 40     -0.338801  5 H  s          
    45     -0.333824  6 H  s                  5     -0.219101  1 O  py         
    16     -0.198280  2 H  s                 22      0.194866  3 H  px         

 Vector   18  Occ=0.000000D+00  E= 8.576083D-01
              MO Center= -2.0D-02,  1.7D-01, -7.9D-02, r^2= 4.7D+00
   Bfn.  Coefficient  Atom+Function         Bfn.  Coefficient  Atom+Function  
  ----- ------------  ---------------      ----- ------------  ---------------
    15      0.731223  2 H  s                 44     -0.676927  6 H  s          
    16     -0.654618  2 H  s                 45      0.604554  6 H  s          
    39     -0.469695  5 H  s                 20      0.364751  3 H  s          
    40      0.304706  5 H  s                 27     -0.272738  4 O  s          
     3      0.235539  1 O  s                 28      0.216341  4 O  px         

 Vector   19  Occ=0.000000D+00  E= 1.157269D+00
              MO Center= -7.5D-02, -3.5D-02, -4.9D-02, r^2= 5.0D+00
   Bfn.  Coefficient  Atom+Function         Bfn.  Coefficient  Atom+Function  
  ----- ------------  ---------------      ----- ------------  ---------------
    31      0.789010  4 O  px                 8      0.765016  1 O  py         
    27      0.514867  4 O  s                  3      0.506271  1 O  s          
     5     -0.458452  1 O  py                28     -0.458541  4 O  px         
    44     -0.424195  6 H  s                 15     -0.382868  2 H  s          
    33     -0.365707  4 O  pz                20     -0.346793  3 H  s          

 Vector   20  Occ=0.000000D+00  E= 1.163085D+00
              MO Center= -9.5D-02, -9.1D-02, -5.5D-02, r^2= 5.0D+00
   Bfn.  Coefficient  Atom+Function         Bfn.  Coefficient  Atom+Function  
  ----- ------------  ---------------      ----- ------------  ---------------
     8      0.801575  1 O  py                31     -0.758229  4 O  px         
    27     -0.520041  4 O  s                  3      0.514868  1 O  s          
     5     -0.491101  1 O  py                28      0.487213  4 O  px         
    32     -0.477568  4 O  py                39      0.388455  5 H  s          
    15     -0.366189  2 H  s                 20     -0.356896  3 H  s          


 center of mass
 --------------
 x =  -0.02841596 y =  -0.06257130 z =   0.00142191

 moments of inertia (a.u.)
 ------------------
         267.301190830735          70.281015512692        -225.286503620336
          70.281015512692         457.882871522180          73.615536813912
        -225.286503620336          73.615536813912         247.424274789143

  Mulliken analysis of the total density
  --------------------------------------

    Atom       Charge   Shell Charges
 -----------   ------   -------------------------------------------------------
    1 O    8     8.32   2.00  0.83  0.83  2.82  1.83  0.01
    2 H    1     0.84   0.68  0.07  0.08
    3 H    1     0.84   0.68  0.07  0.09
    4 O    8     8.33   2.00  0.83  0.83  2.81  1.83  0.01
    5 H    1     0.84   0.68  0.07  0.09
    6 H    1     0.83   0.68  0.07  0.08

       Multipole analysis of the density wrt the origin
       ------------------------------------------------

     L   x y z        total         open         nuclear
     -   - - -        -----         ----         -------
     0   0 0 0      0.000000      0.000000     20.000000

     1   1 0 0      0.472185      0.000000      0.003708
     1   0 1 0      1.039472      0.000000      0.003290
     1   0 0 1      0.001603      0.000000      0.036708

     2   2 0 0    -11.678005      0.000000    119.004695
     2   1 1 0      1.316158      0.000000    -37.284372
     2   1 0 1     -0.829330      0.000000    123.979995
     2   0 2 0     -8.482284      0.000000     17.250967
     2   0 1 1      0.663283      0.000000    -40.083593
     2   0 0 2     -7.381313      0.000000    136.155283


 Parallel integral file used      10 records with       0 large values



                   Four-Index Transformation
                   -------------------------
          Number of basis functions:             48
          Number of shells:                      24
          Number of occupied orbitals:           10
          Number of occ. correlated orbitals:    10
          Block length:                          16
          Superscript MO index range:      1 -   10
          Subscript MO index range:        1 -   48
          MO coefficients read from:  ./input.movecs           
          Number of operator matrices in core:  110
          Half-transformed integrals produced

     Pass:    1     Index range:    1  -   10     Time:      0.38
 ------------------------------------------
 MP2 Energy (coupled cluster initial guess)
 ------------------------------------------
 Reference energy:           -152.055348123597582
 MP2 Corr. energy:             -0.409543831841007
 Total MP2 energy:           -152.464891955438588


 ****************************************************************************
              the segmented parallel ccsd program:    1 nodes
 ****************************************************************************




 level of theory    ccsd
 number of core         0
 number of occupied    10
 number of virtual     38
 number of deleted      0
 total functions       48
 number of shells      24
 basis label          566



   ***** ccsd parameters *****
   iprt   =     0
   convi  =  0.100E-05
   maxit  =    20
   mxvec  =     5
 memory             65529828
  Using  1 OpenMP thread(s) in CCSD
  Restarting from old vector in ./input.t2


-------------------------------------------------------------------------
 iter     correlation     delta       rms       T2     Non-T2      Main
             energy      energy      error      ampl     ampl      Block
                                                time     time      time
-------------------------------------------------------------------------
 g_st2 size:       1 MB
 mem. avail      499 MB
   1     -0.4139033397 -4.139D-01  2.309D-02     0.97     0.00     0.71
 g_st2 size:       1 MB
 mem. avail      499 MB
   2     -0.4240659249 -1.016D-02  2.133D-01     0.43     0.00     0.17
 g_st2 size:       1 MB
 mem. avail      499 MB
   3     -0.4268543549 -2.788D-03  4.677D-02     0.43     0.00     0.17
 g_st2 size:       1 MB
 mem. avail      499 MB
   4     -0.4276974694 -8.431D-04  2.156D-02     0.43     0.00     0.17
 g_st2 size:       1 MB
 mem. avail      499 MB
   5     -0.4279103519 -2.129D-04  9.152D-04     0.43     0.00     0.17
 g_st2 size:       1 MB
 mem. avail      499 MB
   6     -0.4280072485 -9.690D-05  2.776D-04     0.43     0.00     0.17
 g_st2 size:       1 MB
 mem. avail      499 MB
   7     -0.4280261748 -1.893D-05  1.688D-04     0.43     0.00     0.17
 g_st2 size:       1 MB
 mem. avail      499 MB
   8     -0.4280261734  1.353D-09  8.858D-05     0.43     0.00     0.17
 g_st2 size:       1 MB
 mem. avail      499 MB
   9     -0.4280259280  2.455D-07  4.505D-05     0.43     0.00     0.17
 g_st2 size:       1 MB
 mem. avail      499 MB
  10     -0.4280249375  9.904D-07  1.720D-05     0.43     0.00     0.18
 g_st2 size:       1 MB
 mem. avail      499 MB
  11     -0.4280248843  5.321D-08  1.479D-05     0.43     0.00     0.17
 g_st2 size:       1 MB
 mem. avail      499 MB
  12     -0.4280248308  5.351D-08  2.037D-06     0.43     0.00     0.17
 g_st2 size:       1 MB
 mem. avail      499 MB
  13     -0.4280248352 -4.376D-09  3.732D-07     0.44     0.00     0.17
                  *************converged*************
-------------------------------------------------------------------------

 -----------
 CCSD Energy
 -----------
 Reference energy:            -152.055348123597582
 CCSD corr. energy:             -0.428024835166449
 Total CCSD energy:           -152.483372958764022


 --------------------------------
 Spin Component Scaled (SCS) CCSD
 --------------------------------
 Same spin contribution:                 -0.092233971691802
 Same spin scaling factor:                1.130000000000000
 Opposite spin contribution:             -0.335790863474647
 Opposite spin scaling fact.:             1.270000000000000
 SCS-CCSD correlation energy:            -0.530678784624538
 Total SCS-CCSD energy:                -152.586026908222124

 routine      calls  cpu(0)   cpu-min  cpu-ave  cpu-max   i/o 
 aoccsd          1     0.01     0.01     0.01     0.01    0.00
 iterdrv         1     0.02     0.02     0.02     0.02    0.00
 pampt          13     0.04     0.04     0.04     0.04    0.00
 t2pm           13     0.23     0.23     0.23     0.23    0.00
 sxy            13     0.03     0.03     0.03     0.03    0.00
 ints        85150     0.51     0.51     0.51     0.51    0.00
 f_write       600     0.01     0.01     0.01     0.01    0.00
 t2eri        3900     1.10     1.10     1.10     1.10    0.00
 idx2         3900     0.79     0.79     0.79     0.79    0.00
 idx34          13     0.30     0.30     0.30     0.30    0.00
 ht2pm          13     0.25     0.25     0.25     0.25    0.00
 itm            13     2.86     2.86     2.86     2.86    0.00
 pdiis          13     0.01     0.01     0.01     0.01    0.00
 r_read       3600     0.04     0.04     0.04     0.04    0.00
 Total                 6.20     6.20     6.20     6.20    0.00
 step   -12 energy        -152.48337296
            gradient         0.001380


                         CCSD ENERGY GRADIENTS

    atom               coordinates                        gradient
                 x          y          z           x          y          z
   1 O       2.433393  -0.969386   2.528050    0.001531   0.003468   0.003457
   2 H       0.744318  -0.266269   2.575087   -0.006138  -0.002620  -0.001641
   3 H       3.526528   0.320112   3.214235    0.006393  -0.001321   0.000285
   4 O      -2.563432   0.684358  -2.531501    0.001782   0.004028  -0.003985
   5 H      -2.276474   2.401979  -3.075516   -0.005782   0.004353   0.000509
   6 H      -0.954057  -0.175597  -2.686198    0.002213  -0.007908   0.001375



 Deleting state for ccsd with suffix numg
        ./input.movecs


 Task  times  cpu:      152.8s     wall:      154.6s
 Summary of allocated global arrays
-----------------------------------
  No active global arrays



                         GA Statistics for process    0
                         ------------------------------

       create   destroy   get      put      acc     scatter   gather  read&inc
calls: 9742     9742     2.50e+06 4.41e+06 3.93e+06    0        0     4.65e+05 
number of processes/call 0.00e+00 0.00e+00 0.00e+00 0.00e+00 0.00e+00
bytes total:             2.26e+10 1.03e+10 1.96e+10 0.00e+00 0.00e+00 3.72e+06
bytes remote:            0.00e+00 0.00e+00 0.00e+00 0.00e+00 0.00e+00 0.00e+00
Max memory consumed for GA by this process: 21531232 bytes
MA_summarize_allocated_blocks: starting scan ...
MA_summarize_allocated_blocks: scan completed: 0 heap blocks, 0 stack blocks
MA usage statistics:

	allocation statistics:
					      heap	     stack
					      ----	     -----
	current number of blocks	         0	         0
	maximum number of blocks	        23	        35
	current total bytes		         0	         0
	maximum total bytes		  12086416	 472076520
	maximum total K-bytes		     12087	    472077
	maximum total M-bytes		        13	       473


                                NWChem Input Module
                                -------------------





                                     CITATION
                                     --------
                Please cite the following reference when publishing
                           results obtained with NWChem:

          E. Apr, E. J. Bylaska, W. A. de Jong, N. Govind, K. Kowalski,
       T. P. Straatsma, M. Valiev, H. J. J. van Dam, Y. Alexeev, J. Anchell,
       V. Anisimov, F. W. Aquino, R. Atta-Fynn, J. Autschbach, N. P. Bauman,
     J. C. Becca, D. E. Bernholdt, K. Bhaskaran-Nair, S. Bogatko, P. Borowski,
        J. Boschen, J. Brabec, A. Bruner, E. Caut, Y. Chen, G. N. Chuev,
      C. J. Cramer, J. Daily, M. J. O. Deegan, T. H. Dunning Jr., M. Dupuis,
   K. G. Dyall, G. I. Fann, S. A. Fischer, A. Fonari, H. Frchtl, L. Gagliardi,
      J. Garza, N. Gawande, S. Ghosh, K. Glaesemann, A. W. Gtz, J. Hammond,
       V. Helms, E. D. Hermes, K. Hirao, S. Hirata, M. Jacquelin, L. Jensen,
   B. G. Johnson, H. Jnsson, R. A. Kendall, M. Klemm, R. Kobayashi, V. Konkov,
      S. Krishnamoorthy, M. Krishnan, Z. Lin, R. D. Lins, R. J. Littlefield,
      A. J. Logsdail, K. Lopata, W. Ma, A. V. Marenich, J. Martin del Campo,
   D. Mejia-Rodriguez, J. E. Moore, J. M. Mullin, T. Nakajima, D. R. Nascimento,
    J. A. Nichols, P. J. Nichols, J. Nieplocha, A. Otero-de-la-Roza, B. Palmer,
    A. Panyala, T. Pirojsirikul, B. Peng, R. Peverati, J. Pittner, L. Pollack,
   R. M. Richard, P. Sadayappan, G. C. Schatz, W. A. Shelton, D. W. Silverstein,
   D. M. A. Smith, T. A. Soares, D. Song, M. Swart, H. L. Taylor, G. S. Thomas,
            V. Tipparaju, D. G. Truhlar, K. Tsemekhman, T. Van Voorhis,
     . Vzquez-Mayagoitia, P. Verma, O. Villa, A. Vishnu, K. D. Vogiatzis,
        D. Wang, J. H. Weare, M. J. Williamson, T. L. Windus, K. Woliski,
        A. T. Wong, Q. Wu, C. Yang, Q. Yu, M. Zacharias, Z. Zhang, Y. Zhao,
                                and R. J. Harrison
                        "NWChem: Past, present, and future
                         J. Chem. Phys. 152, 184102 (2020)
                               doi:10.1063/5.0004997

                                      AUTHORS
                                      -------
     E. Apra, E. J. Bylaska, N. Govind, K. Kowalski, M. Valiev, W. A. de Jong,
      T. P. Straatsma, H. J. J. van Dam, D. Wang, T. L. Windus, N. P. Bauman,
       A. Panyala, J. Hammond, J. Autschbach, K. Bhaskaran-Nair, J. Brabec,
    K. Lopata, S. A. Fischer, S. Krishnamoorthy, M. Jacquelin, W. Ma, M. Klemm,
       O. Villa, Y. Chen, V. Anisimov, F. Aquino, S. Hirata, M. T. Hackler,
           Eric Hermes, L. Jensen, J. E. Moore, J. C. Becca, V. Konjkov,
            D. Mejia-Rodriguez, T. Risthaus, M. Malagoli, A. Marenich,
   A. Otero-de-la-Roza, J. Mullin, P. Nichols, R. Peverati, J. Pittner, Y. Zhao,
        P.-D. Fan, A. Fonari, M. J. Williamson, R. J. Harrison, J. R. Rehr,
      M. Dupuis, D. Silverstein, D. M. A. Smith, J. Nieplocha, V. Tipparaju,
      M. Krishnan, B. E. Van Kuiken, A. Vazquez-Mayagoitia, M. Swart, Q. Wu,
   T. Van Voorhis, A. A. Auer, M. Nooijen, L. D. Crosby, E. Brown, G. Cisneros,
     G. I. Fann, H. Fruchtl, J. Garza, K. Hirao, R. A. Kendall, J. A. Nichols,
       K. Tsemekhman, K. Wolinski, J. Anchell, D. E. Bernholdt, P. Borowski,
       T. Clark, D. Clerc, H. Dachsel, M. J. O. Deegan, K. Dyall, D. Elwood,
      E. Glendening, M. Gutowski, A. C. Hess, J. Jaffe, B. G. Johnson, J. Ju,
        R. Kobayashi, R. Kutteh, Z. Lin, R. Littlefield, X. Long, B. Meng,
      T. Nakajima, S. Niu, L. Pollack, M. Rosing, K. Glaesemann, G. Sandrone,
      M. Stave, H. Taylor, G. Thomas, J. H. van Lenthe, A. T. Wong, Z. Zhang.

 Total times  cpu:      154.4s     wall:      156.3s
